/*--------------------------------*- C++ -*----------------------------------*\
  =========                 |
  \\      /  F ield         | OpenFOAM: The Open Source CFD Toolbox
   \\    /   O peration     | Website:  https://openfoam.org
    \\  /    A nd           | Version:  8
     \\/     M anipulation  |
\*---------------------------------------------------------------------------*/
FoamFile
{
    version     2.0;
    format      ascii;
    class       surfaceScalarField;
    location    "0";
    object      phi;
}
// * * * * * * * * * * * * * * * * * * * * * * * * * * * * * * * * * * * * * //

dimensions      [0 3 -1 0 0 0 0];

internalField   nonuniform List<scalar> 
137852
(
-1.4806156e-06
-0.00032117402
-1.9729754e-06
-3.3983992e-05
2.9596824e-08
0.00034417637
-0.00034438699
-1.0998034e-07
2.9098148e-07
2.886737e-07
0.00034480724
-0.0003449061
-1.875551e-07
-2.2693142e-09
-8.7103601e-08
0.00034508302
-0.00034509562
9.4889895e-08
4.8209203e-09
-5.9649256e-08
0.00034509801
-0.00034510683
6.3412855e-08
5.0583687e-09
-2.2892758e-08
0.00034513279
-0.00034513904
2.4874322e-08
4.2675062e-09
-1.3583809e-08
0.00034514951
-0.00034515164
1.322341e-08
2.495958e-09
-8.9682446e-09
0.00034515567
-0.00034515607
8.2555256e-09
1.1089655e-09
-5.4762985e-09
0.00034515617
-0.00034515551
4.9072401e-09
-9.0696145e-11
-3.121281e-09
0.00034515362
-0.00034515289
2.7412494e-09
-3.5272676e-10
-5.0663952e-10
0.00034515133
-0.00034515083
3.3024982e-10
-3.1858251e-10
3.9629706e-09
0.00034515108
-0.00034515144
-3.5967673e-09
-8.0176e-12
1.2344652e-08
0.00034515381
-0.00034515564
-1.1117318e-08
6.0522696e-10
3.1672791e-08
0.00034516518
-0.00034517007
-2.7784281e-08
9.9526617e-10
7.5098054e-08
0.00034518847
-0.00034519546
-6.8994979e-08
8.8566574e-10
1.7972514e-07
0.0003452168
-0.00034522233
-1.7274146e-07
-1.4530714e-09
4.6581312e-07
0.00034523009
-0.00034523021
-4.4832494e-07
-1.7369251e-08
1.2151076e-06
0.00034528069
-0.00034530998
-1.1455306e-06
-4.028763e-08
3.0265438e-06
0.00034542693
-0.00034562548
-2.7376005e-06
-9.0392351e-08
7.0922777e-06
0.00034567019
-0.00034526257
-7.2265575e-06
-2.7334453e-07
1.789424e-05
0.00034398729
-0.00034190725
-1.9287805e-05
-6.8646387e-07
4.1930355e-05
0.0003334837
-0.00032826804
-4.4500807e-05
-2.6452356e-06
6.768808e-05
0.00032520863
-0.0003172881
-7.3692462e-05
-1.9161975e-06
6.9115641e-05
0.00026789435
-0.0002436498
-9.5467296e-05
2.1070193e-06
8.1831674e-05
0.00015939046
-0.00018612057
-5.5102031e-05
0.00013575854
0.00028859696
-0.00030322124
-0.00012549702
4.3627038e-06
0.00012720409
0.0002866427
-0.00025084348
-0.00015348814
-9.5151966e-06
0.00012922207
-0.00017814503
4.8923743e-05
0.00016061636
0.00028434629
-0.00029025215
-0.00015454404
-1.6642943e-07
0.00018440803
-0.0001071147
-7.7293532e-05
7.4709986e-05
0.00025436036
-0.00027363012
-4.7905042e-05
-7.5352088e-06
0.00016823676
8.5607358e-06
-0.00017679503
-0.00017858343
0.00015533282
-0.00015578746
0.00020875316
-2.9715073e-05
-0.0001730854
-2.5852127e-06
0.00015155674
2.41136e-05
-0.00033792612
-8.9632097e-06
8.6799305e-06
0.00038521656
-4.7006959e-05
-0.00043479186
-8.7524737e-05
8.9810015e-05
0.00043365931
-1.1527183e-06
-0.00036940602
-0.00013192462
9.4415593e-05
0.00030250306
0.0001044118
-0.00024547122
-7.5378251e-05
0.00026491595
5.5933833e-05
-0.00022046107
0.00012352473
9.6937383e-05
-0.00039772412
-7.7966104e-05
5.8180844e-05
0.00040934912
8.1603749e-06
-0.00046581776
-4.7409445e-05
4.379217e-05
0.00047776882
-8.333796e-06
-0.00048633894
-1.8288916e-05
1.7436073e-05
0.00048706299
1.2881148e-07
-0.00048915466
-7.0288306e-06
6.4737036e-06
0.00048953517
1.746359e-07
-0.00049038193
-2.9996309e-06
2.6232019e-06
0.00049078038
-2.2014389e-08
-0.00049073665
-1.4859629e-06
1.4269336e-06
0.00049073638
5.9301453e-08
-0.00049097278
-5.6385238e-07
4.7455946e-07
0.00049105889
3.1866054e-09
-0.00049118892
-1.9668951e-07
1.9016506e-07
0.00049119588
-4.3808602e-10
-0.00049119483
-6.7850043e-08
7.0756247e-08
0.00049119109
8.3425914e-10
-0.00049118143
-2.4225922e-08
2.6089593e-08
0.00049117838
1.1907301e-09
-0.00049117448
-8.9454455e-09
8.4579909e-09
0.00049117411
8.604911e-10
-0.00049117292
-2.9076312e-09
2.6470778e-09
0.00049117303
1.4801377e-10
-0.00049117622
-1.082015e-09
4.21674e-11
0.00049117854
-1.2809084e-09
-0.00049119173
-2.792157e-09
4.5222398e-10
0.00049119742
-3.3443185e-09
-0.0004912193
-7.9743287e-09
4.0565781e-09
0.00049122903
-5.8056183e-09
-0.00049126803
-1.8394724e-08
1.3234943e-08
0.00049128135
-8.1524868e-09
-0.00049132227
-2.9460675e-08
2.3868496e-08
0.00049133596
-8.0933501e-09
-0.00049134079
-2.2940115e-08
5.3450195e-08
0.00049131242
-2.134022e-09
-0.00049114829
9.2702144e-08
-5.3834668e-08
0.00049110515
4.2819171e-09
-0.0004910988
-4.365367e-08
-2.3001785e-07
0.00049122692
1.4555467e-07
-0.0004907107
4.3175861e-07
-9.5512069e-07
0.00049042369
8.1035594e-07
-0.00048748141
2.6470999e-06
-6.6300016e-06
0.00048881493
2.6493415e-06
1.7073811e-05
3.6580227e-05
0.0030358679
0.00031598408
-0.0031170902
5.2852018e-07
3.6443992e-06
0.0031113246
1.5927427e-06
-0.0031035247
9.6503929e-06
-7.4579362e-06
0.0031028999
-1.5677179e-06
-0.0031027938
5.9732631e-06
-4.8700312e-06
0.0031027815
-1.0909581e-06
-0.0031043055
-5.2258539e-06
3.4372377e-06
0.0031053313
7.6282861e-07
-0.003108507
-2.5427515e-06
1.9209819e-06
0.0031088106
3.1813382e-07
-0.0031089686
-6.2594337e-08
8.5209006e-08
0.0031089105
3.5497331e-08
-0.003108925
-9.6607631e-08
5.4766991e-08
0.0031089573
9.4494345e-09
-0.0031091673
-2.4372442e-07
9.1924692e-08
0.0031093248
-5.6660613e-09
-1.9052436e-06
-3.6480227e-06
-0.00041702826
-1.1389205e-06
-2.3216326e-07
-1.7374653e-06
-2.3666191e-06
0.00039334973
-0.00039277667
1.8609021e-06
1.6701225e-06
-2.428905e-07
-1.4660208e-07
0.0003934917
-0.00039342019
1.3010434e-07
1.8787716e-07
7.2348563e-08
1.6769196e-07
0.00039334963
-0.0003935099
-9.0177326e-08
1.0402709e-08
-1.4141293e-07
3.5064156e-08
0.00039377472
-0.00039373439
-4.5102081e-08
1.1111791e-07
-2.4035073e-08
4.794261e-09
0.00039371728
-0.00039372991
-5.0824193e-10
3.2374537e-08
-2.4840204e-09
-1.0534421e-08
0.00039375801
-0.0003937628
1.2532655e-08
5.2769113e-09
1.583146e-09
-1.0161748e-08
0.00039377252
-0.00039377491
1.0982e-08
-1.8320606e-11
4.2782754e-09
-7.558545e-09
0.00039377918
-0.00039378002
8.1358839e-09
-4.0149046e-09
3.7687e-09
-4.8149853e-09
0.00039378135
-0.0003937815
5.3816232e-09
-4.1847249e-09
2.7047254e-09
-1.8866246e-09
0.00039378078
-0.00039378
2.0593746e-09
-3.6562555e-09
-2.1760799e-10
3.79168e-09
0.0003937761
-0.00039377427
-4.6532865e-09
-7.4923662e-10
-8.330854e-09
1.6339542e-08
0.00039376794
-0.00039376557
-1.8810022e-08
8.4319554e-09
-2.156766e-08
4.374323e-08
0.0003937572
-0.00039375357
-4.8545299e-08
2.2739057e-08
-3.5637102e-08
9.2919554e-08
0.00039373018
-0.0003937142
-1.0525443e-07
3.1998359e-08
-4.5732689e-08
1.8311643e-07
0.00039362329
-0.00039357512
-2.194817e-07
3.3926468e-08
1.6045446e-08
4.2160593e-07
0.00039336963
-0.00039327849
-5.1449692e-07
-1.4297762e-08
-3.0603731e-07
1.0577886e-06
0.00039261398
-0.00039216829
-1.3695335e-06
1.7209667e-07
-5.761109e-07
3.0955916e-06
0.00039031258
-0.0003895407
-3.7390695e-06
4.4770752e-07
-1.2308112e-06
7.846531e-06
0.00038533686
-0.0003833597
-9.3924677e-06
7.995963e-07
3.7457232e-06
2.5177243e-05
0.00037450331
-0.00037297743
-2.7052722e-05
-3.3961142e-06
5.8233217e-06
5.0433225e-05
0.0003878747
-0.00038902427
-5.1805226e-05
-3.301699e-06
-3.5147987e-06
6.8415281e-05
0.00036321918
-0.00035601179
-7.3447336e-05
1.3394117e-06
-2.8441259e-06
8.162506e-05
0.00035109996
-0.00033750833
-9.6916412e-05
4.5437199e-06
4.3676232e-05
0.00030101374
-0.00021177654
-0.0001905318
5.7600205e-05
-0.0031106577
9.0437517e-08
-8.5039839e-07
0.0031117228
-3.0513351e-07
3.6021459e-06
7.6923555e-09
-0.00040040174
1.1523963e-06
-2.9584973e-06
-2.6264773e-07
0.00039857069
-3.3133595e-09
-0.00039771078
-4.5484907e-07
-1.3909688e-07
-8.0678116e-08
4.7338138e-08
0.00039667386
-0.00039659635
-1.013729e-07
5.721067e-08
-2.553292e-08
-3.3982234e-09
0.00039654184
-0.00039654589
1.2894705e-08
2.0087382e-08
-1.8071487e-08
-5.4770336e-09
0.00039657891
-0.0003965882
1.6004729e-08
1.6834914e-08
-1.6652163e-08
-1.4445993e-08
0.00039661111
-0.00039661579
1.619585e-08
1.9579825e-08
-1.1598227e-08
-1.507663e-08
0.00039662896
-0.00039663181
1.3613567e-08
1.5918328e-08
-6.7794086e-09
-1.0736925e-08
0.00039664177
-0.00039664391
8.6912817e-09
1.0963497e-08
-1.4126986e-09
-8.2254053e-09
0.0003966506
-0.00039665109
6.4522418e-09
3.6716632e-09
1.804458e-09
-6.7124146e-09
0.00039665238
-0.00039665138
5.3752052e-09
-1.4676794e-09
2.4495906e-09
-3.7392537e-09
0.00039664974
-0.00039664826
2.7588802e-09
-2.9475588e-09
1.3810782e-09
4.190935e-09
0.00039664678
-0.00039664591
-4.8600362e-09
-1.5798546e-09
-1.4545745e-09
2.036147e-08
0.00039664786
-0.00039664845
-2.0543022e-08
2.2204274e-09
-3.3418473e-09
5.1827419e-08
0.00039665474
-0.00039665667
-5.0265165e-08
3.7065915e-09
-2.8365443e-09
1.1513875e-07
0.00039666879
-0.00039667418
-1.0870195e-07
1.7939103e-09
3.7886485e-10
2.7265613e-07
0.00039669928
-0.00039670699
-2.6781411e-07
2.4898859e-09
3.9518101e-08
6.8639292e-07
0.00039673225
-0.00039674195
-6.8115597e-07
-3.5062774e-08
8.7823605e-08
1.8021406e-06
0.00039679199
-0.00039682117
-1.7817881e-06
-7.8993459e-08
2.27231e-07
4.6040175e-06
0.00039698308
-0.00039706198
-4.5412377e-06
-2.1110607e-07
8.8064949e-07
1.1404804e-05
0.00039757798
-0.00039784433
-1.1183023e-05
-8.3608538e-07
3.8340758e-06
2.7517912e-05
0.00039950218
-0.00040088031
-2.6559551e-05
-3.4142911e-06
4.3753207e-06
5.4144456e-05
0.00040761117
-0.00040833442
-5.429036e-05
-3.5061407e-06
-5.8438725e-07
8.5620639e-05
0.00039887072
-0.00039464653
-8.9692894e-05
4.3244484e-07
1.7751502e-08
0.00011577001
0.00038025906
-0.00037506537
-0.00012085355
-1.2793129e-07
-4.104309e-08
0.00014588052
0.00036346367
-0.00035877952
-0.00014936834
-1.1553164e-06
5.0777975e-06
0.00017115055
0.00034921548
-0.0003503748
-0.00017245338
-2.6155197e-06
3.7910614e-05
0.00033829354
-0.00022155699
-0.00023326738
7.8578469e-05
-0.0031133571
1.8897637e-05
-1.4693606e-05
0.0031110842
-1.9311152e-06
-1.4530996e-05
3.6461429e-06
-0.00042839318
-1.988749e-05
5.4583358e-06
-1.4404492e-06
0.00039022235
2.1012171e-06
-0.00039121766
-1.5592823e-06
1.8938371e-06
4.3787799e-09
0.00039203983
7.2139922e-08
-0.00039226139
1.6326014e-08
1.2872306e-07
-3.3481047e-09
0.00039188879
3.6180571e-08
-0.00039161345
-1.2919658e-07
-1.789732e-07
2.5124922e-08
0.00039126921
2.7761519e-09
-0.00039117725
-4.9163886e-08
-7.0688726e-08
-3.4886901e-08
0.00039115865
-1.0778522e-08
-0.00039112427
-1.8454664e-08
2.9743608e-08
-3.8859475e-08
0.00039118326
-8.0575805e-09
-0.00039115566
-1.9601551e-08
3.8917714e-08
-3.0275035e-08
0.00039121622
-2.9071537e-09
-0.00039118719
-2.4010136e-08
2.8169263e-08
-2.1647163e-08
0.0003912359
-6.2868515e-10
-0.00039120149
-2.6704027e-08
1.4572212e-08
-1.7702238e-08
0.00039123704
5.8949518e-10
-0.00039119997
-2.8238526e-08
8.2858837e-09
-1.6902969e-08
0.00039123248
2.4396181e-09
-0.0003911955
-2.9835959e-08
7.3232117e-09
-1.5899987e-08
0.00039123048
7.4232179e-09
-0.00039119501
-3.3558495e-08
6.5663853e-09
-1.3408045e-08
0.0003912376
1.8098853e-08
-0.00039120538
-4.1633925e-08
4.7209759e-09
-5.7507891e-09
0.00039125729
3.7534352e-08
-0.00039122622
-5.7049102e-08
-5.8045271e-09
3.3205609e-09
0.00039127991
5.2989634e-08
-0.00039125702
-5.2775238e-08
-2.6431898e-08
-1.0346202e-07
0.00039151405
1.7272588e-07
-0.00039161787
-1.467869e-07
1.8134151e-07
1.188145e-07
0.00039223664
4.3345432e-07
-0.00039236784
-3.09372e-07
-1.1169882e-07
3.227346e-07
0.000393316
1.2557511e-06
-0.00039376565
-9.8221356e-07
-1.4661453e-07
1.0733127e-06
0.00039555118
3.3453738e-06
-0.00039625345
-2.6594467e-06
-1.056973e-06
3.1120381e-06
0.0004008661
8.0202513e-06
-0.00040327578
-6.1745066e-06
-2.5481e-06
8.7528549e-06
0.00041255932
1.9498487e-05
-0.00041881692
-1.5052939e-05
-6.9407747e-06
1.4088451e-05
0.00044238838
5.2113041e-05
-0.00044872836
-5.0534017e-05
-9.3274349e-06
-5.3327147e-06
0.00044252702
0.0001063503
-0.00043121192
-0.00011506455
2.7317868e-06
-5.7197065e-07
0.00041176724
0.00013828661
-0.00040524863
-0.00014506207
8.2882193e-07
-1.2446814e-06
0.00038637874
0.00016332593
-0.00037974482
-0.00016946612
7.5093034e-07
3.5605846e-06
0.00018215639
0.00036525776
-0.00036292101
-0.00018565688
-2.3968308e-06
1.1599039e-05
0.00020421168
0.00036310104
-0.00036574406
-0.00020319097
-9.9767484e-06
7.6775686e-05
0.00034685798
0.00036444622
-0.00048411956
-0.00026210672
-4.1850999e-05
-0.0030783102
9.0568757e-05
-6.3191987e-05
0.0030544859
-3.5524837e-06
7.3252971e-05
0.00041632318
0.00016099911
-0.00049294189
-0.00019518077
3.7556116e-05
-1.2362644e-05
0.00042163137
0.00019803125
-0.00039533593
-0.00021895594
6.9913234e-06
-4.5981388e-06
0.00037319158
0.00019536136
-0.00036803447
-0.00019885047
2.9301976e-06
6.5486438e-06
0.0001880929
0.00037067783
-0.0003791695
-0.00017960181
-6.5480981e-06
5.7697379e-05
0.00020488615
0.00044517106
-0.00048543802
-0.00017063593
-5.1680705e-05
0.00037134142
0.00046863461
0.00071092272
-0.0010358797
-0.00025213471
-0.00026288222
-0.0028740441
0.0003679836
-0.00022662522
0.002735113
-2.4275634e-06
-2.7232267e-05
0.00038484684
0.0001984238
-0.00032254971
-0.00023925412
5.7638747e-06
-1.1626254e-05
0.00032081034
0.00015050873
-0.00032535796
-0.00014229719
7.9623641e-06
3.0069012e-05
5.7520571e-05
0.00037650826
-0.00041192355
-2.2864886e-05
-2.9309357e-05
0.00021979877
-0.00011561026
0.00060182946
-0.00070136717
0.00019305562
-0.00019770627
0.0012181589
-0.00079621448
0.0011153232
-0.0016727947
0.00083186338
-0.00069632812
-0.0021125664
0.0007354806
-0.00038072102
0.0019194653
-0.00016165787
-3.8135032e-05
0.00015085203
0.00015603947
-0.00022974621
-8.2653658e-05
4.364745e-05
-1.7372911e-05
0.00019945435
-6.5419479e-05
-0.00021719721
9.1127297e-05
9.4080531e-06
7.2579645e-05
-0.00031579629
0.00028946501
-0.0003170314
0.00033670685
-6.5923729e-05
0.00026551891
-0.00076407911
0.00038243964
-0.000389813
0.00071561445
-0.00020968067
-0.00096551863
0.00066001487
-0.00056082681
0.001146495
-0.00028016669
-8.3484595e-05
-3.5648003e-05
-0.00016663427
-2.1027761e-06
0.00025340424
3.446431e-05
-5.6221531e-07
4.6157244e-05
-0.00038430895
-5.6165009e-05
0.00039904909
-4.1700981e-06
7.7191928e-05
-0.00061339917
6.2142692e-05
-5.2517354e-05
0.00059315966
-6.6577757e-05
0.00017710835
-0.00081448175
-2.5467831e-05
7.7639339e-05
0.00076493138
-0.00017973008
-1.7997861e-05
-0.00010526355
-0.00046175251
9.3201986e-05
0.00047819629
1.3615698e-05
1.2912327e-05
-7.5438755e-05
-0.00056434583
7.7497073e-05
0.0005620894
-1.2714226e-05
4.8942483e-05
-0.0006331895
-0.00010965697
0.00012671394
0.00060961773
-4.2427693e-05
-0.00019353005
0.00026958557
-7.6037973e-05
-9.6724683e-05
-0.00027001392
-0.00052470981
0.00016413347
0.00070753811
1.9775598e-05
-4.0800787e-06
-0.0001213983
-0.00056976575
0.00011551017
0.0005774955
2.2384439e-06
7.7440176e-06
-0.00057603179
-0.00011226733
0.00011418049
0.00057446463
-8.0900535e-06
-6.3498718e-05
-0.00053254365
-0.00012304366
0.00018105851
0.00062072561
-8.2700175e-05
-0.0004521732
0.00011388181
0.00034932868
-1.1037828e-05
-5.2631795e-06
-0.00011038858
-0.000604263
0.00010291542
0.00061439624
2.6030833e-06
3.2724236e-07
-0.00057111629
-9.0908428e-05
8.8448223e-05
0.00057438047
-1.1312334e-06
-1.2399799e-05
-0.00051808045
-7.7556645e-05
7.6411105e-05
0.00053254074
-9.1500986e-07
1.455562e-05
-4.8530473e-05
-0.00061106023
5.2212921e-05
0.00060336258
-1.0540363e-05
8.4656403e-06
-0.00057515569
-5.8389132e-05
6.0027452e-05
0.00057157075
-6.5189774e-06
1.597647e-05
-0.0005520433
-6.5105206e-05
6.5714186e-05
0.00054662543
-1.1167405e-05
5.9618282e-06
-2.0489029e-05
-0.00058366631
2.3244552e-05
0.00058005026
-5.1012994e-06
2.4565838e-06
-0.00056460416
-2.8004495e-05
2.8332112e-05
0.00056437022
-2.5502476e-06
-1.5274477e-06
-0.00052804019
-2.3186766e-05
1.7657933e-05
0.00053496419
1.3226473e-07
2.0182127e-06
-8.5792652e-06
-0.00057174716
9.9114833e-06
0.00057021101
-1.8142862e-06
1.5085498e-07
-0.00056521942
-1.1571493e-05
1.1315097e-05
0.00056557136
-2.4640155e-07
-1.9424635e-06
-0.00054716121
-7.7552712e-06
5.7625901e-06
0.00054951995
1.5763941e-06
1.0633692e-06
-3.3585618e-06
-0.00056674927
3.9939374e-06
0.0005658499
-7.993742e-07
4.7887907e-08
-0.00056631001
-4.7357346e-06
4.6225836e-06
0.00056643034
-5.5071574e-08
9.90214e-08
-0.00055414031
-3.5732089e-06
3.4641213e-06
0.000553765
3.8538275e-07
3.7282399e-07
-1.4102145e-06
-0.00056397229
1.6227744e-06
0.00056365113
-2.6421909e-07
-4.1775623e-08
-0.00056679682
-1.9038317e-06
1.8191393e-06
0.00056691167
1.1622372e-08
-5.7389521e-07
-0.0005580657
-8.9265919e-07
4.3657238e-07
0.00055893278
1.6289763e-07
2.1990687e-07
-4.8876966e-07
-0.00056294646
6.1086064e-07
0.00056279492
-1.904545e-07
4.5777648e-08
-0.00056711994
-7.4367768e-07
7.1025226e-07
0.00056716092
-5.3331684e-08
1.0784218e-07
-0.00055935078
-4.6245636e-07
3.828146e-07
0.00055942758
-1.0499938e-07
5.294844e-08
-1.7741731e-07
-0.00056253688
2.2421832e-07
0.00056249031
-5.3181185e-08
1.985029e-08
-0.00056724323
-2.8435143e-07
2.7436337e-07
0.00056726382
-3.0461466e-08
3.3740276e-08
-0.00055997545
-1.5563584e-07
1.1568786e-07
0.00056006508
-8.3422298e-08
2.2693576e-08
-5.36137e-08
-0.00056243761
7.2211682e-08
0.00056244024
-4.3929514e-08
1.0181466e-08
-0.00056730922
-1.0026486e-07
9.8134875e-08
0.00056732155
-2.0377731e-08
1.9542205e-08
-0.00056038144
-5.5272425e-08
6.1060068e-08
0.00056038702
-3.0909206e-08
1.0979954e-08
-1.0665972e-08
-0.00056245955
1.7199635e-08
0.00056246318
-2.1135329e-08
4.5513758e-09
-0.00056734412
-3.0281074e-08
3.1572221e-08
0.0005673489
-1.0622782e-08
1.7646065e-08
-0.00056050516
-2.3766535e-08
5.0125489e-08
0.0005604708
-9.6514773e-09
1.992547e-09
-4.723539e-09
-0.00056247101
5.5549394e-09
0.0005624727
-4.5173059e-09
-1.1320139e-10
-0.00056735768
-8.1478698e-09
9.1688738e-09
0.00056735931
-2.5327715e-09
1.351822e-08
-0.00056053164
-8.7058468e-09
3.9117008e-08
0.00056048892
-1.2049799e-09
1.4575704e-09
-2.2427512e-09
-0.0005624733
2.1440865e-09
0.0005624741
-2.1560766e-09
1.605401e-10
-0.00056736337
-2.0119631e-09
2.3910042e-09
0.00056736453
-1.6949259e-09
1.9424442e-08
-0.00056053666
-3.6572913e-09
3.5932264e-08
0.0005604914
-6.4456379e-09
4.7156257e-09
-2.5305868e-09
-0.00056247602
2.6383674e-09
0.0005624766
-5.3980971e-09
4.0967141e-09
-0.00056736694
-9.7650668e-10
9.5628771e-10
0.00056736805
-5.1870954e-09
2.2745091e-08
-0.00056053531
-6.825494e-10
3.2229681e-08
0.00056049222
-1.1202517e-08
1.3547392e-08
-7.0713159e-09
-0.00056247835
6.9579281e-09
0.00056247892
-1.4005084e-08
9.7805081e-09
-0.00056737188
-4.1091451e-09
3.2001171e-09
0.0005673734
-1.0391536e-08
2.9741615e-08
-0.00056054073
-1.7119374e-10
3.1671225e-08
0.00056049784
-1.8349586e-08
2.5494453e-08
-2.058438e-08
-0.00056248164
2.0333471e-08
0.00056248217
-2.5777799e-08
1.6218073e-08
-0.00056737817
-1.3582972e-08
1.0543596e-08
0.0005673805
-1.5509094e-08
3.8274055e-08
-0.0005605458
-4.5976431e-09
3.6078921e-08
0.0005604988
-2.2758826e-08
4.0067914e-08
-4.327166e-08
-0.00056248023
3.9787075e-08
0.00056247609
-3.2438712e-08
2.0643911e-08
-0.00056738579
-2.6273826e-08
2.1515243e-08
0.00056738859
-1.8686761e-08
3.9079461e-08
-0.00056055094
-1.0458687e-08
3.8415153e-08
0.00056050978
-2.5870153e-08
5.2647654e-08
-5.0735317e-08
-0.00056244852
4.5775895e-08
0.00056243849
-3.7664233e-08
1.6885724e-08
-0.00056739327
-3.5140118e-08
3.2297635e-08
0.00056739393
-1.4703527e-08
3.6246803e-08
-0.00056057622
-1.591548e-08
3.9708598e-08
0.0005605446
-2.8421588e-08
3.2609477e-08
-5.0079529e-08
-0.00056244983
4.7604303e-08
0.00056246573
-4.603993e-08
-1.5603855e-08
-0.00056738935
-4.8030458e-08
5.4235326e-08
0.0005673871
1.1652691e-08
-5.6778046e-08
-0.00056068256
-4.8847868e-08
5.7136656e-08
0.00056070374
2.7313982e-08
-8.6289826e-08
-1.2765383e-07
-0.00056253551
7.7846782e-08
0.00056260554
6.6063595e-08
-4.7023643e-08
-0.00056739094
-2.6063826e-08
2.284509e-08
0.00056740839
3.2792129e-08
-2.5090454e-07
-0.00056107864
-9.2182281e-08
1.2042117e-07
0.00056109898
2.023296e-07
-1.5533037e-07
-3.6802347e-07
-0.00056256766
3.5564373e-07
0.00056259783
1.3753857e-07
-3.2975571e-07
-0.00056765888
3.446577e-08
-2.1945961e-07
0.00056790637
2.6726413e-07
1.3195574e-07
-0.00056033097
3.1258877e-07
-3.2283488e-08
0.00055983989
7.8823724e-08
-1.5793622e-06
-2.669673e-06
-0.00056291965
2.7403212e-06
0.00056267644
1.7519303e-06
-2.8945944e-06
-0.00056999541
1.6611607e-07
-1.4106046e-06
0.00057159927
2.5352359e-06
-2.7821445e-06
-0.00055694614
3.6487458e-06
-3.8883892e-06
0.00055762345
2.3444662e-06
-2.3246491e-05
-3.0113271e-05
-0.00056856222
2.1625203e-05
0.00058034782
1.9948956e-05
-2.0285549e-05
5.9381094e-07
-0.00058578188
-6.61594e-06
0.00059779016
1.4299407e-05
-2.5687236e-05
-0.00055282804
3.0287218e-05
-3.3101457e-05
0.00055723117
2.4098352e-05
3.2415116e-05
0.00028166675
0.0029019559
6.0630267e-05
-3.039667e-05
-5.0432748e-06
1.0375461e-05
0.0043936739
2.8874153e-05
5.8400844e-06
-0.0031160173
-8.4709876e-06
0.0031213131
-2.664969e-06
-7.632681e-06
-0.0043308121
3.5107257e-06
2.7066404e-06
0.0043209524
1.1275092e-05
6.3048808e-06
-0.0030907131
-5.3396197e-06
0.0030985795
-8.8316884e-06
-1.1095361e-07
-0.0043202635
6.8541047e-07
1.0484234e-06
0.0043173425
1.2981126e-06
-5.3865229e-06
-0.0030994875
-7.0241704e-07
0.0031037997
1.7767222e-06
1.2086865e-06
-0.0043141193
7.7597058e-07
-3.9268695e-07
0.004314277
-1.7496921e-06
-1.4450179e-06
-0.0031081913
7.8881203e-08
0.0031090353
5.2207148e-07
-2.9388799e-07
-0.0043152448
-3.8870281e-07
3.0572396e-07
0.0043154473
1.7438579e-07
7.1944067e-08
-0.0031095427
5.7915651e-08
0.0031094128
2.5496637e-11
-2.127747e-07
-0.0043159393
-4.3360985e-07
3.429421e-07
0.0043160708
1.719408e-07
-6.4032836e-08
-0.003109081
-2.4524999e-08
0.0031092246
-5.5015437e-08
-4.0144155e-08
-0.0043162556
-9.4354827e-09
1.2832043e-08
0.0043162496
4.2692057e-08
-1.6849477e-07
-0.0031094354
-6.9188761e-08
0.0031096851
-1.2006661e-08
-7.5840775e-10
-0.0043161089
2.0260091e-07
-1.6575231e-07
0.0043160386
3.4164579e-08
-2.9284673e-06
-0.00031922704
-3.2953747e-05
-3.3677364e-06
-4.5800256e-07
0.00034331901
-0.00034233561
3.0534216e-07
-8.3075849e-07
2.9204282e-07
0.00034207861
-0.00034280573
-6.9341508e-07
1.1284895e-06
-6.6963462e-07
0.0003437872
-0.00034336173
-3.3194968e-07
5.7611129e-07
-1.6742511e-08
0.00034386136
-0.00034430429
-2.5414807e-07
7.1381942e-07
-3.5835688e-08
0.00034463304
-0.00034462255
1.3912488e-08
1.1442188e-08
3.3687241e-08
0.00034463538
-0.0003446365
3.4814768e-09
-3.6046437e-08
-2.5315133e-08
0.00034468952
-0.00034471006
9.8301954e-09
3.6034017e-08
1.0845977e-08
0.00034470895
-0.00034470588
3.0837169e-09
-1.6996613e-08
6.3909684e-09
0.00034470691
-0.00034470886
1.1526125e-09
-5.5936363e-09
6.6945244e-09
0.0003447139
-0.00034471175
7.0452331e-10
-9.5510388e-09
6.1101964e-09
0.00034469656
-0.00034468908
-1.3468238e-09
-1.223303e-08
-5.8748565e-09
0.00034466439
-0.00034465582
-3.6041398e-09
9.1682725e-10
-4.3708075e-08
0.00034462058
-0.0003446004
-1.641506e-08
3.9949144e-08
-6.9952003e-08
0.00034443861
-0.00034436399
-2.7864075e-08
2.3196926e-08
-1.917296e-07
0.00034427568
-0.00034424469
-1.0812589e-09
1.6182332e-07
6.7708497e-07
0.00034426576
-0.00034410863
-1.9558836e-07
-6.3862567e-07
-5.3961968e-08
0.0003408873
-0.00034113625
-1.4779275e-07
4.5070172e-07
2.5555243e-08
0.00033865951
-0.00033741546
-7.6528426e-07
-5.0431405e-07
-2.1791149e-08
0.00033226398
-0.00032998397
-1.9107694e-06
-3.4744386e-07
8.9519906e-07
0.0003146336
-0.00030758413
-8.2872708e-06
3.4259626e-07
-6.4382863e-07
0.00024610396
-0.00021312176
-3.0910292e-05
-1.4280049e-06
-5.1602986e-07
-0.0031107075
5.0625789e-08
0.0031107762
3.966763e-07
-7.1451433e-10
-0.0043157237
6.74729e-07
-5.7734547e-07
0.0043155149
1.1217219e-07
-3.2373238e-07
4.7080228e-06
-0.00040612667
-4.139353e-06
1.4487513e-06
-1.5663452e-06
0.00039938989
1.2708366e-07
-0.00039790026
8.4263824e-07
-8.9299573e-07
-2.2099635e-07
-1.8256251e-08
0.00039649166
-0.000396412
-6.1078161e-08
2.2066704e-07
5.2807049e-08
-5.81887e-08
0.00039625136
-0.00039628394
5.3975199e-08
-1.6021989e-08
2.7911062e-10
-6.731186e-08
0.00039629222
-0.00039628825
6.1322896e-08
1.7404927e-09
-2.0112625e-08
-4.0602984e-08
0.00039628586
-0.00039629088
4.4982437e-08
2.0753094e-08
-2.3130702e-08
-9.4051876e-09
0.00039629628
-0.00039629653
7.8813578e-09
2.4907792e-08
-1.4532365e-08
-8.1171726e-09
0.00039629928
-0.00039630297
1.1721659e-08
1.4624904e-08
-9.3212534e-09
1.0058562e-09
0.00039631429
-0.00039631749
1.0444403e-09
1.0471322e-08
-7.4514958e-09
4.4639682e-09
0.00039632351
-0.0003963261
-4.1986638e-09
9.7766275e-09
-2.3632593e-09
7.4899568e-09
0.00039633164
-0.00039633327
-8.8741722e-09
5.3763403e-09
1.0471894e-08
6.6586967e-09
0.00039633161
-0.00039632912
-9.4315372e-09
-1.0183693e-08
2.3380774e-08
-4.7800297e-09
0.00039631473
-0.00039630969
2.9066433e-09
-2.6544964e-08
5.6832194e-08
-1.195444e-08
0.00039628863
-0.00039627688
6.922477e-09
-6.3550881e-08
1.1451218e-07
6.73452e-09
0.00039621265
-0.00039617791
-2.5273749e-08
-1.3070381e-07
1.7231988e-07
3.8297257e-09
0.00039602555
-0.00039594871
-2.7400987e-08
-2.2559702e-07
5.9979389e-07
5.4966362e-08
0.00039570219
-0.0003956281
-5.4868999e-08
-6.7398254e-07
1.2852174e-06
8.755576e-08
0.00039508893
-0.00039473883
-1.5711925e-07
-1.5657543e-06
3.357588e-06
6.4579687e-08
0.00039314674
-0.0003923049
-2.3879959e-07
-4.025206e-06
8.8014503e-06
5.0426004e-08
0.0003885042
-0.00038668854
-2.6478231e-07
-1.0402751e-05
2.5019201e-05
3.9594188e-08
0.00038061522
-0.00037960277
1.2799832e-06
-2.7351214e-05
4.9709093e-05
-5.4296484e-08
0.00038047151
-0.00037922095
9.249717e-07
-5.1830316e-05
6.9213475e-05
-4.282449e-08
0.00037136676
-0.00036587038
3.5021665e-07
-7.5017277e-05
7.0878888e-08
9.1815286e-05
0.00035402162
-0.00034596445
-9.9128196e-05
-8.1518055e-07
-1.4250682e-07
9.5443697e-05
0.00032954333
-0.00030618
-0.000119661
9.9610087e-07
-2.1558731e-06
-0.0031126326
-9.4738076e-07
0.0031158962
-1.60333e-07
-2.7128648e-07
-0.0043139336
3.7922625e-06
-3.1855042e-06
0.0043126702
9.2793174e-07
-3.3359629e-07
5.5561807e-10
-0.00039392532
1.3678698e-06
1.5772117e-06
0.00039879189
1.1105781e-07
1.3399162e-09
-1.1617177e-07
-1.6070781e-07
-0.0003986274
8.3393586e-08
-3.1106441e-09
0.00039836834
-0.00039826172
-6.6179045e-08
-1.2071772e-07
2.0639776e-09
-4.3712647e-09
0.00039811979
-0.00039811196
1.2305966e-09
-6.7547291e-09
-1.1737682e-08
-1.3092152e-08
0.00039812485
-0.00039812395
1.3675774e-08
1.0247609e-08
-2.1118039e-08
-1.4705392e-08
0.00039811162
-0.0003980981
5.2091039e-09
1.7088255e-08
-2.8431971e-08
-1.2271109e-08
0.0003980883
-0.00039808127
5.1220611e-09
2.8550876e-08
-2.8833682e-08
-1.6251737e-09
0.00039806305
-0.00039805682
-7.7310344e-09
3.1960675e-08
-1.5438668e-08
-7.0641211e-09
0.00039806309
-0.00039806106
2.0239773e-09
1.844702e-08
4.5211033e-10
-1.7798804e-08
0.00039806066
-0.00039805835
1.6861827e-08
-1.823509e-09
8.5658327e-09
-2.0958626e-08
0.00039806066
-0.00039805666
2.3695518e-08
-1.5303277e-08
4.7343132e-09
-3.3907388e-09
0.00039806094
-0.00039805995
6.6493481e-09
-8.980952e-09
-5.2742656e-09
2.403028e-08
0.00039807126
-0.00039807199
-2.3488707e-08
5.4623807e-09
-1.3481205e-09
7.2959255e-08
0.00039808105
-0.00039807702
-7.41104e-08
-1.5289249e-09
1.0719853e-08
1.4605689e-07
0.00039807215
-0.00039807527
-1.3706726e-07
-1.6594425e-08
2.2324786e-09
2.9726883e-07
0.00039810165
-0.00039810624
-2.8680698e-07
-8.1063155e-09
1.8112934e-08
7.8263253e-07
0.00039812524
-0.00039813213
-7.7765923e-07
-1.6192068e-08
3.5818129e-08
1.9603605e-06
0.00039820623
-0.00039824816
-1.9337932e-06
-2.045323e-08
4.4536886e-08
4.9574056e-06
0.00039851754
-0.00039866964
-4.8744065e-06
2.4563144e-08
4.680847e-08
1.2294134e-05
0.00039965883
-0.00040031853
-1.1975253e-05
2.9401416e-07
3.4218221e-08
2.8670006e-05
0.00040454306
-0.00040696981
-2.7591569e-05
1.3141199e-06
5.5859192e-05
-4.5474725e-09
0.00041471566
-0.00041562767
1.3110582e-06
-5.6253669e-05
8.7865808e-05
-1.2924678e-07
0.0004092184
-0.0004047272
3.8772954e-08
-9.226655e-05
0.00011743836
-1.8758073e-07
0.00038887771
-0.00038301237
3.3606367e-07
-0.00012345221
0.00014669589
-4.2252065e-07
0.0003666059
-0.00036220224
1.3823955e-06
-0.00015205945
0.00016836607
-4.0143606e-07
0.0003534722
-0.0003491526
1.2673619e-06
-0.00017355161
-9.6247394e-07
0.00027409996
0.0003324085
-0.00042946999
-0.00020203368
2.5957555e-05
6.8236389e-06
-0.0031431569
-2.1525841e-05
0.00318059
-2.2730828e-05
-4.7209703e-07
-0.0043062163
2.6305297e-05
-2.2474557e-05
0.0043017526
1.1050707e-06
-2.8399131e-07
-4.7016518e-06
-0.00041228272
3.5017014e-06
6.6893106e-07
4.1913128e-08
0.00039808089
1.5714922e-06
-0.00039681973
-1.9285244e-06
-9.4603831e-07
1.7852159e-09
0.00039602719
1.5392714e-07
-0.00039611832
-4.7833556e-08
-1.6752242e-08
4.7932554e-08
0.00039627653
-4.6678821e-09
-0.00039627385
-1.7030751e-08
-2.8909716e-08
4.9487237e-08
0.00039623824
-1.2147901e-08
-0.00039624706
7.7045417e-09
-3.6228431e-08
-3.3536091e-08
0.00039633237
4.2592591e-08
-0.00039630766
-6.1001097e-08
2.7233457e-08
-6.0639008e-08
0.00039628479
2.4407159e-09
-0.00039629371
-2.8629667e-09
6.9984997e-08
-6.1972547e-08
0.00039633932
2.4521458e-08
-0.00039635689
-2.550602e-08
8.0526137e-08
-1.8970269e-08
0.00039639365
4.2967603e-09
-0.00039639911
-3.2504923e-09
2.3380988e-08
7.8778698e-10
0.00039639975
-9.7180007e-09
-0.00039639477
6.7150155e-09
-2.7613403e-09
4.5329826e-09
0.00039636767
-1.6226059e-08
-0.0003963555
8.4629218e-09
-8.946841e-09
3.0937963e-09
0.00039632388
-6.0614601e-09
-0.00039631732
2.4596538e-09
-6.0498876e-09
-1.8847109e-09
0.00039631544
1.6528694e-08
-0.00039632068
-1.3157444e-08
3.7520384e-09
4.9616949e-09
0.00039635818
5.0915138e-08
-0.00039637703
-3.795506e-08
9.3411229e-10
4.0180192e-08
0.00039644115
5.9664886e-08
-0.00039646659
-2.789613e-08
-4.6512602e-08
4.4496268e-09
0.0003966703
1.2281152e-07
-0.00039680067
-7.9874119e-09
1.1092983e-08
-4.9257577e-08
0.00039685547
6.3162374e-07
-0.00039694438
-5.2544333e-07
3.1985804e-08
4.7133545e-08