/*--------------------------------*- C++ -*----------------------------------*\
  =========                 |
  \\      /  F ield         | OpenFOAM: The Open Source CFD Toolbox
   \\    /   O peration     | Website:  https://openfoam.org
    \\  /    A nd           | Version:  8
     \\/     M anipulation  |
\*---------------------------------------------------------------------------*/
FoamFile
{
    version     2.0;
    format      ascii;
    class       volVectorField;
    location    "0";
    object      U;
}
// * * * * * * * * * * * * * * * * * * * * * * * * * * * * * * * * * * * * * //

dimensions      [0 1 -1 0 0 0 0];

internalField   nonuniform List<vector> 
48763
(
(-0.099418114 0.00059588266 1.5322101e-06)
(-0.099813074 -2.1338053e-05 6.3388877e-05)
(-0.099637543 -1.2648763e-05 1.5904916e-05)
(-0.099630123 2.9947395e-05 1.128418e-05)
(-0.099616577 2.1968511e-05 5.0761977e-06)
(-0.099620296 7.4171516e-06 9.3692468e-07)
(-0.099623343 3.9547773e-06 3.3917921e-07)
(-0.099624577 2.5319185e-06 4.5898958e-08)
(-0.099624476 1.4985733e-06 8.2822614e-08)
(-0.099623615 8.4866755e-07 5.6939059e-09)
(-0.099622946 1.207272e-07 -1.7656534e-08)
(-0.099622929 -1.0959377e-06 -7.8775561e-08)
(-0.099623927 -3.3661971e-06 -1.614032e-07)
(-0.099627169 -8.5506943e-06 1.2610518e-08)
(-0.099633583 -2.0837821e-05 -1.0148702e-06)
(-0.099642946 -5.1187095e-05 -4.9722859e-06)
(-0.099652215 -0.00013557191 -1.1042233e-05)
(-0.099681039 -0.00034029834 -2.9330395e-05)
(-0.099782419 -0.00080883247 -6.2406004e-05)
(-0.099570955 -0.0020656347 -0.00017732722)
(-0.10005581 -0.0053741193 -0.00086662823)
(-0.098616194 -0.013030245 -0.00027439919)
(-0.095420703 -0.020841685 0.00077150428)
(-0.091537452 -0.028854818 0.00019370047)
(-0.10055784 -0.034154981 0.0013184107)
(-0.091467528 -0.040465591 0.00029474104)
(-0.086578091 -0.044981878 -0.00091633969)
(-0.08962191 -0.047139824 0.002736481)
(-0.084942672 -0.046443541 -0.00067364615)
(-0.096580632 -0.036081199 -0.01258362)
(-0.07859281 -0.017829339 0.00035462436)
(-0.10920541 0.032974543 -0.037059243)
(-0.04679846 0.057785349 -0.0039571145)
(0.0010958496 0.08968413 0.013506079)
(0.0039381307 0.12427053 -0.01091416)
(0.02616205 0.12911687 -0.00065856507)
(0.031620149 0.13856229 0.0016030077)
(0.030156836 0.13565029 -0.0041793318)
(0.028706395 0.14784588 -0.0036777084)
(0.023327538 0.13730568 -0.0010276789)
(0.013029704 0.13946085 -6.2513575e-05)
(0.0052069013 0.14130053 0.00014468527)
(0.0019422454 0.14219953 -4.2600071e-05)
(0.0007918833 0.14225127 5.8297127e-05)
(0.00043839109 0.14234934 -8.4594434e-06)
(0.00016027282 0.14231389 -5.7273233e-06)
(5.6325371e-05 0.14233632 5.4925041e-06)
(2.0269167e-05 0.14233773 2.7103236e-06)
(7.396115e-06 0.14233483 6.7069793e-07)
(2.5225658e-06 0.14233285 3.3805079e-07)
(8.042947e-07 0.14233215 7.5479262e-08)
(9.8361164e-08 0.14233336 -1.7829147e-07)
(4.5531389e-07 0.14233827 -4.8964274e-07)
(1.6584196e-06 0.14234735 -1.0969465e-06)
(4.5365112e-06 0.14236278 -9.4596669e-07)
(7.7880892e-06 0.14238032 -6.160283e-07)
(4.9751535e-06 0.14239355 5.4272146e-06)
(-3.8670725e-05 0.14241283 1.0575419e-05)
(-3.6198989e-05 0.14248065 -4.4710573e-05)
(-0.0001737618 0.14205735 0.00017149363)
(-0.0012720029 0.14182646 -0.00015785782)
(0.019217546 1.0150123 -0.008857418)
(0.0016314176 0.99833343 9.8241055e-05)
(-0.0021185401 0.99798798 6.8108484e-05)
(-0.00020178712 0.99948916 0.000277393)
(-0.00015161764 0.99975627 7.7389553e-05)
(-6.9973684e-05 0.9997305 0.00011337781)
(6.6741125e-06 0.99962717 -3.4761363e-07)
(2.3160428e-05 0.99961162 -4.2316572e-06)
(4.4015026e-05 0.99964018 1.0923305e-05)
(-0.099578877 -5.3083443e-06 7.9475855e-06)
(-0.099727477 -2.5974448e-06 5.4406402e-05)
(-0.099629146 -3.1622443e-05 2.2179933e-05)
(-0.099671619 7.1899353e-05 5.2790809e-05)
(-0.099593504 1.475127e-05 8.8229551e-06)
(-0.099617979 7.7647574e-06 1.8493044e-06)
(-0.099621526 5.1067907e-06 1.3108293e-06)
(-0.099624274 3.3178141e-06 -1.2906712e-06)
(-0.099623596 2.3931047e-06 -1.9588955e-06)
(-0.09962253 1.3779373e-06 -1.2338852e-06)
(-0.099621719 5.5759317e-07 -8.1188819e-07)
(-0.099620069 -8.6282546e-07 -9.0272733e-08)
(-0.099617821 -4.0198632e-06 2.6098446e-06)
(-0.099615104 -1.0733201e-05 8.2766045e-06)
(-0.099609203 -2.6287897e-05 1.5053893e-05)
(-0.09959052 -5.7604588e-05 1.7308505e-05)
(-0.099496549 -0.00013092803 2.1191077e-05)
(-0.099307609 -0.00039234146 1.5711088e-05)
(-0.098835698 -0.00083384599 0.0001412533)
(-0.097558804 -0.0020876429 0.00035546393)
(-0.094847435 -0.0050789968 0.00057463387)
(-0.09125379 -0.010835771 0.0002250054)
(-0.087990286 -0.017523791 0.00012689177)
(-0.084311845 -0.023919111 -0.00011996757)
(-0.081449713 -0.030382918 0.0017640632)
(-9.6301766e-05 0.99994306 4.0326889e-05)
(-0.099621092 -1.7561717e-06 -1.0489824e-05)
(-0.099681595 -2.0553761e-05 7.6814756e-06)
(-0.099644639 -1.1870053e-05 1.7147321e-05)
(-0.099632761 1.5220751e-05 6.4556488e-06)
(-0.099620048 1.6322866e-05 4.5451301e-06)
(-0.099621177 9.7789825e-06 4.0089355e-06)
(-0.099624373 6.0296541e-06 2.8923189e-06)
(-0.099625608 3.9207665e-06 9.2353117e-07)
(-0.099624837 2.5624464e-06 -4.0196969e-07)
(-0.099623574 1.4035393e-06 -5.3656343e-07)
(-0.099622854 3.7089536e-07 -2.6057997e-07)
(-0.099622556 -1.3798845e-06 6.2034573e-08)
(-0.0996232 -5.1642428e-06 1.1019134e-06)
(-0.099626844 -1.3205697e-05 2.5653753e-06)
(-0.09963461 -3.0434429e-05 2.5569322e-06)
(-0.099647161 -6.8634597e-05 2.8930772e-07)
(-0.099665638 -0.00017668333 -8.6250038e-06)
(-0.09970694 -0.00045224115 -2.8143064e-05)
(-0.099798031 -0.001128245 -6.0221682e-05)
(-0.099902827 -0.0028547126 -0.00010120501)
(-0.099771819 -0.0067579537 -0.00011339317)
(-0.098431824 -0.013387927 -1.9725523e-05)
(-0.09537133 -0.021097003 3.1551869e-05)
(-0.090986861 -0.028386393 -1.3764195e-05)
(-0.086154531 -0.034679867 -0.00026515567)
(-0.081868269 -0.040392057 -0.00093861843)
(-0.08166232 -0.047235276 -0.00048338595)
(-0.0041786441 1.0001197 -0.0006668053)
(-0.099580041 1.1313904e-05 7.6867554e-05)
(-0.099727724 -8.0199036e-05 0.00017054905)
(-0.099630926 -6.2819509e-05 4.4445781e-05)
(-0.099617908 -8.9849915e-06 -6.5729022e-05)
(-0.099620587 4.0076765e-06 -1.2731211e-05)
(-0.099624185 7.3609826e-06 6.9404124e-06)
(-0.099627439 4.775746e-06 5.7141303e-06)
(-0.099627139 2.8096958e-06 2.7266827e-06)
(-0.099626035 1.5437686e-06 7.9984029e-07)
(-0.099624429 7.4140446e-07 1.2948483e-07)
(-0.099623876 1.8451519e-07 1.2739047e-07)
(-0.099624708 -8.6818978e-07 -1.4804649e-07)
(-0.099627581 -2.9674875e-06 -8.6709709e-07)
(-0.099635979 -7.0421285e-06 -3.6872688e-06)
(-0.099652956 -1.5371505e-05 -7.4773994e-06)
(-0.099688373 2.7074837e-06 1.0822377e-05)
(-0.099822863 -0.00011267048 -2.2184044e-05)
(-0.1000659 -0.00023304259 -7.9799287e-05)
(-0.10073179 -0.00066352443 -0.00035775716)
(-0.10239016 -0.0019924727 -0.00058863514)
(-0.10595745 -0.0061436842 -0.00084782874)
(-0.10752321 -0.01532682 -0.0004047436)
(-0.10426414 -0.025381498 1.8171812e-05)
(-0.098400906 -0.033889419 0.00022646001)
(-0.091976499 -0.039908397 0.00014336383)
(-0.087383275 -0.043961652 -0.00045285852)
(-0.087556456 -0.048737115 -0.0026941803)
(-0.095687065 -0.061937602 -0.00969931)
(-0.025287599 0.98553561 -0.0028923903)
(-0.10705435 -0.042991962 0.00091684778)
(-0.096058365 -0.047519135 0.0012146211)
(-0.088525224 -0.046872155 0.00091648483)
(-0.090140058 -0.043163304 -0.0016258262)
(-0.11156954 -0.042851354 -0.012810386)
(-0.17611375 -0.070455679 -0.064667489)
(-0.095315362 0.88763401 -0.0074400174)
(-0.080927977 -0.051443111 0.0043393503)
(-0.076839602 -0.033949266 0.0026099728)
(-0.096336806 -0.0073089556 -0.0076479188)
(-0.15833882 0.038800326 -0.050816231)
(-0.3098346 0.17677201 -0.2405709)
(-0.18302656 0.6035152 -0.025303363)
(-0.042947962 -0.028216935 0.010548534)
(-0.051582917 0.020269885 0.0027144533)
(-0.07669363 0.080806963 -0.017558385)
(-0.096926491 0.17879283 -0.065209071)
(-0.109104 0.37386974 -0.11100439)
(0.00097436261 0.046502036 0.011122557)
(-0.014322609 0.095097066 -0.00085283146)
(-0.01648464 0.14732335 -0.017763802)
(0.014762041 0.19424646 -0.04353149)
(0.023666914 0.11208363 0.0048245473)
(0.017041229 0.13601758 -0.0031893673)
(0.027345768 0.15005973 -0.009809257)
(0.046576007 0.14684073 -0.003220024)
(0.03858153 0.13457972 0.0053036309)
(0.027672935 0.13806619 0.00048533581)
(0.027179776 0.13828117 -0.0023066566)
(0.030432464 0.13184027 -0.004047621)
(0.038901575 0.15625206 0.0026956017)
(0.025160235 0.14460658 0.00072974732)
(0.021676231 0.13763056 -0.00040669207)
(0.020467995 0.12948418 -0.0010039313)
(0.015609463 0.14891946 -0.00018509197)
(0.013794767 0.13965007 3.0563993e-05)
(0.011678042 0.13099869 0.00038328143)
(0.0063712654 0.1475022 -0.00093039285)
(0.006736339 0.14133082 1.30087e-05)
(0.0044770659 0.13619201 0.00082354028)
(0.0023034598 0.14466665 -0.00061964427)
(0.0028143924 0.14206624 -2.770073e-05)
(0.0016823953 0.13990943 0.0004480715)
(0.00092321106 0.14325344 -0.0002341981)
(0.0011664743 0.14228971 -2.2121181e-05)
(0.00061496679 0.14151166 0.00029861679)
(0.00035681002 0.14275385 -7.0160541e-05)
(0.00052030798 0.14233368 -2.7335582e-05)
(0.0004839462 0.14187104 -0.00014039763)
(0.00015620176 0.1425119 -1.7589738e-05)
(0.00019980485 0.14232702 -6.2797022e-06)
(9.1607469e-05 0.14214302 1.8157496e-05)
(5.0603276e-05 0.14241415 1.101145e-06)
(7.0712343e-05 0.14233792 5.9494377e-07)
(3.6006272e-05 0.1422786 -1.3835715e-05)
(1.1840964e-05 0.14236102 5.6564819e-06)
(2.3782212e-05 0.14233691 6.6015023e-07)
(1.784637e-05 0.14231369 -6.9401664e-06)
(4.1939676e-06 0.14234089 2.0116104e-06)
(8.0680774e-06 0.14233454 9.742947e-07)
(5.332454e-06 0.14232623 -2.9135097e-07)
(1.8237723e-06 0.14233493 9.14724e-07)
(2.9921846e-06 0.1423326 1.4287825e-06)
(2.8092124e-06 0.14232969 1.3760923e-06)
(9.5872645e-07 0.14233231 4.6360301e-07)
(8.998635e-07 0.14233125 4.9487912e-07)
(-1.932806e-07 0.14232946 3.0985443e-07)
(7.795732e-07 0.1423318 -1.5042829e-06)
(2.451321e-07 0.14233205 -1.659549e-06)
(-3.2024612e-07 0.14233183 -1.585896e-06)
(2.035595e-06 0.14233432 -4.73085e-06)
(8.1266577e-07 0.14233617 -4.8765947e-06)
(-9.8948154e-07 0.14233682 -4.2711137e-06)
(5.5901589e-06 0.14234049 -1.0160529e-05)
(3.0580298e-06 0.14234538 -9.0467114e-06)
(-1.2464754e-06 0.14234762 -6.7377386e-06)
(1.3987865e-05 0.14235309 -1.8346358e-05)
(8.1076719e-06 0.14236147 -1.239591e-05)
(1.5030516e-06 0.14236568 -8.2600463e-06)
(2.3573257e-05 0.14237948 -2.6347397e-05)
(1.2649803e-05 0.14238146 -1.2743207e-05)
(3.7936007e-06 0.14238347 -9.6406055e-06)
(1.5227967e-05 0.14241442 -2.6484318e-05)
(6.9849678e-06 0.14239962 -1.0252595e-05)
(7.1329499e-06 0.14238815 -2.1973087e-05)
(1.5365022e-05 0.14241557 -2.1881363e-05)
(-1.897271e-05 0.14243474 8.5769329e-06)
(-4.1211041e-05 0.1423318 3.5220276e-05)
(0.00013344896 0.1424869 5.2863736e-05)
(-4.8470687e-05 0.14259573 9.6917172e-05)
(-0.00025459125 0.14245139 0.00015812389)
(0.00073183378 0.14266972 0.00055536415)
(-0.0001598833 0.14328902 0.00071810833)
(-0.00040745966 0.14227147 0.00031761188)
(0.0048452734 0.14512524 0.004259314)
(-0.0008455743 0.14786107 0.0043503308)
(-0.0059799055 0.14177219 0.0045457793)
(-0.0054957438 1.0096678 0.011004905)
(0.0017368701 0.99843224 0.0093943677)
(0.0069801028 1.007868 -0.0036225832)
(0.00016410268 0.9964887 0.00026702675)
(0.00067856435 1.0004917 -0.0040688692)
(-0.00053711686 0.99791265 -0.00056108181)
(2.9050487e-05 1.0003441 0.0023191701)
(-0.00036854446 0.99987547 0.0004511365)
(-0.00014582742 0.99937759 0.00066502794)
(-8.1487987e-05 0.99953835 0.00035277543)
(1.2044283e-06 0.99953802 -1.7805612e-05)
(-1.2742924e-05 0.99957425 7.1427589e-05)
(-1.1137942e-05 0.99961717 1.3155698e-06)
(-1.0478373e-05 0.99959753 -3.123914e-06)
(-2.9875586e-05 0.99965676 8.2802679e-05)
(-3.1163156e-05 0.99961335 -2.3517172e-05)
(-0.099142939 -0.00055817336 0.00071543655)
(-0.099701615 4.4245694e-05 -3.5862084e-05)
(-0.099520923 0.0007475841 3.2122553e-05)
(-0.099231833 0.00029602881 0.00016845905)
(-0.099671152 0.00034282584 6.1873621e-05)
(-0.099607121 -6.0742765e-06 -1.5073447e-06)
(-0.099621265 1.7452666e-06 3.1004589e-07)
(-0.099628422 -2.9808772e-06 -5.3063557e-06)
(-0.099620479 -9.3265706e-07 -6.1689163e-06)
(-0.099620241 6.2298682e-07 -1.9338684e-06)
(-0.099622084 -7.2868456e-07 -2.5946757e-06)
(-0.099616589 -1.0031867e-06 -3.1203251e-06)
(-0.099609655 -8.0631724e-07 4.3636957e-07)
(-0.099595835 4.1943877e-06 1.2268536e-05)
(-0.09957871 -9.8323154e-06 5.8616399e-05)
(-0.099576722 -6.1605129e-05 7.1028279e-05)
(-0.099480568 8.0551689e-05 -0.00020878784)
(-0.099207428 -0.00010969314 6.5438484e-05)
(-0.098172363 -0.00014276993 -5.1106769e-05)
(-0.095996978 -0.0004637026 -5.5144743e-05)
(-0.090892194 -0.00065309387 -0.00020997997)
(-0.087997532 -0.007670397 0.00035855285)
(-0.00010603608 0.99972813 0.00025896179)
(-0.00011178475 0.99962134 -7.4089259e-05)
(-0.099593726 -1.2448664e-05 2.4058365e-06)
(-0.099661616 -3.0156958e-05 1.7307553e-05)
(-0.099661696 -1.7585584e-05 1.4188912e-05)
(-0.099657173 1.4956849e-05 1.9641759e-05)
(-0.099624579 1.8998894e-05 1.8609606e-06)
(-0.099613022 9.9186507e-06 -1.9875625e-07)
(-0.099625834 5.7512046e-06 5.8319979e-06)
(-0.099628557 8.9103161e-06 -6.0679603e-06)
(-0.099621768 5.4104456e-06 -6.3503017e-06)
(-0.099621294 1.7519372e-06 -2.0678817e-06)
(-0.099622056 1.8350636e-06 -2.2884059e-06)
(-0.099618413 5.9473845e-07 -3.0875359e-06)
(-0.099612118 -3.8250595e-06 1.7183341e-06)
(-0.099605704 -1.4369337e-05 1.245705e-05)
(-0.099601271 -4.3857005e-05 2.7718027e-05)
(-0.099604425 -8.3111572e-05 2.2604921e-05)
(-0.099518011 -0.00013027635 -3.0222065e-05)
(-0.099283862 -0.00037060663 -3.6898153e-05)
(-0.098750647 -0.00092111905 -3.7186246e-05)
(-0.097438337 -0.0022632286 -6.3286038e-05)
(-0.094837473 -0.0053609498 -7.4612491e-05)
(-0.091465434 -0.010847027 -8.4179345e-06)
(-0.088094545 -0.017384621 2.3538461e-05)
(-0.084406836 -0.023807876 5.9552254e-05)
(-0.080138763 -0.029341456 -1.3070654e-05)
(-0.0002108985 1.0012851 -4.318663e-05)
(-0.00056445428 0.99990546 -0.00024947278)
(-0.099630337 -4.0021723e-07 2.1639e-06)
(-0.099657346 -7.8666761e-06 1.6775275e-05)
(-0.099655547 -1.34053e-05 1.4312429e-05)
(-0.09963642 -1.7055565e-06 9.2174468e-06)
(-0.099621271 1.3525371e-05 7.7241607e-06)
(-0.099622095 1.6369117e-05 7.6549898e-06)
(-0.099626515 7.7220588e-06 5.4954196e-06)
(-0.099628907 6.1068991e-06 2.2476027e-06)
(-0.09962575 4.5406507e-06 -1.5746804e-06)
(-0.099623008 2.4825953e-06 -1.472472e-06)
(-0.099622465 1.2550584e-06 1.9907598e-07)
(-0.099621982 -7.769302e-07 -1.2382026e-07)
(-0.099620431 -6.7495814e-06 1.8831799e-06)
(-0.099624672 -1.9084518e-05 7.6804583e-06)
(-0.099638617 -4.2860288e-05 4.6101688e-06)
(-0.099653137 -8.3258435e-05 -4.0378574e-06)
(-0.099676441 -0.00018242746 -9.0354236e-06)
(-0.099722559 -0.00048253928 -1.3482635e-05)
(-0.099812961 -0.0012351077 -9.3909425e-06)
(-0.099925442 -0.0030671197 2.3281252e-06)
(-0.099744484 -0.007042905 7.5788228e-06)
(-0.098399268 -0.01352602 8.6493971e-06)
(-0.095356176 -0.021101667 1.0664652e-05)
(-0.091015904 -0.028295458 3.2718161e-05)
(-0.086332155 -0.034524045 9.5139316e-05)
(-0.082497314 -0.040218551 0.00020626987)
(-0.079350314 -0.045464703 0.00052876386)
(0.0036894838 1.0113934 -0.0096384239)
(-0.0054363991 0.99977302 1.330321e-06)
(-0.099577603 2.6272189e-05 5.8542106e-06)
(-0.099685899 1.2782037e-05 2.0937552e-05)
(-0.09966611 -4.2489292e-05 1.0003637e-05)
(-0.099610648 -2.8766311e-05 1.0372901e-05)
(-0.099607236 4.3971831e-06 1.8216759e-05)
(-0.099625025 2.0010828e-05 3.0078203e-05)
(-0.099633144 6.7044255e-06 3.8029371e-06)
(-0.099630231 5.0551213e-06 4.187274e-06)
(-0.099627789 2.4726741e-06 -2.317657e-07)
(-0.099624207 1.1007521e-06 -5.2405204e-07)
(-0.099623615 6.4524889e-07 6.7977584e-07)
(-0.099625125 -9.483912e-07 3.942129e-07)
(-0.099627647 -4.3605151e-06 5.0727239e-07)
(-0.099638977 -1.1861899e-05 2.1412464e-06)
(-0.09966383 -2.7293468e-05 -4.6792261e-06)
(-0.099687763 -4.7867205e-05 -3.9779414e-05)
(-0.099835651 -6.3321777e-05 1.858905e-05)
(-0.10014213 -0.00028162759 -1.4479549e-05)
(-0.10086054 -0.00079405156 1.6658028e-05)
(-0.10262857 -0.0022001025 8.0388097e-05)
(-0.10587839 -0.0064800359 0.00011005264)
(-0.10725887 -0.015376738 4.7097735e-05)
(-0.1041655 -0.025200115 2.3751486e-06)
(-0.09841034 -0.0336531 -1.9399719e-07)
(-0.092096887 -0.039629411 -1.5789001e-06)
(-0.08793874 -0.043636419 7.7632643e-05)
(-0.089404799 -0.048794193 0.00041942861)
(-0.10034327 -0.064273557 0.0015083399)
(-0.0070724941 1.0606515 -0.020231191)
(-0.035527131 0.98653772 -0.0002746515)
(-0.11758171 -0.031938736 0.00072059203)
(-0.10638949 -0.042086743 0.00020298461)
(-0.096088806 -0.046440781 -0.00021027033)
(-0.08900262 -0.045903125 -0.00013374351)
(-0.092697603 -0.04221192 0.00030196317)
(-0.12343822 -0.04348045 0.0024275076)
(-0.26768934 -0.086417083 0.017511045)
(-1.3725182 1.4744972 -0.090113137)
(-0.15364498 0.88249733 -0.00096389207)
(-0.11315944 -0.068015523 -0.00014266482)
(-0.080982388 -0.050025651 -0.00064145766)
(-0.079021822 -0.031444138 -0.00029514103)
(-0.10630192 -0.003164982 0.0015766344)
(-0.20349203 0.06125575 0.01038795)
(-0.36306564 0.340461 0.029599986)
(-0.17722611 0.58109056 0.0065550029)
(-0.045045601 -0.02306416 -0.0012290274)
(-0.0572062 0.024767606 -0.00011153878)
(-0.091354294 0.093016772 0.0034403922)
(-0.12120552 0.2137218 0.010645164)
(-0.081874794 0.34560764 0.011826349)
(-0.0035290169 0.047915449 -0.0013744136)
(-0.020620932 0.10004127 0.00043953977)
(-0.025647284 0.15955448 0.0032652135)
(-0.0019630178 0.21962311 0.0071730038)
(0.042217439 0.076926209 -0.0014660783)
(0.020111204 0.11320811 -0.00057608036)
(0.013643685 0.13968631 0.00066594926)
(0.024893708 0.15756086 0.0018322279)
(0.04644817 0.15087244 0.0011598987)
(0.035904641 0.13353634 -0.00067899319)
(0.026077638 0.13877136 -1.0364715e-05)
(0.026287724 0.14006019 0.00043423894)
(0.031370172 0.13251101 0.00053276745)
(0.031642687 0.15249386 -0.0017735615)
(0.024384586 0.14443305 -7.1897054e-05)
(0.021329207 0.13802175 0.00010599474)
(0.020199702 0.13001027 0.00019392141)
(0.017697768 0.16350768 0.00039310738)
(0.015650954 0.14844315 1.3969407e-05)
(0.01386194 0.13970708 8.9830337e-06)
(0.011332856 0.1318491 2.4824932e-05)
(-0.00053521251 0.15492769 0.00029761421)
(0.0068535228 0.14742811 6.778253e-05)
(0.0070838618 0.141304 -2.7263063e-05)
(0.0048221376 0.13618331 -0.00011289617)
(0.00016263789 0.14641569 0.00013583906)
(0.0025644925 0.14482959 2.5949483e-05)
(0.003062126 0.14204723 -3.4796724e-05)
(0.0018850536 0.13969395 -8.2076634e-05)
(-0.00055131012 0.14382476 3.3062388e-05)
(0.000988388 0.14340871 1.2039423e-05)
(0.001257138 0.14229575 -2.9427761e-05)
(0.00079665411 0.14133606 -6.3952756e-05)
(0.00015170117 0.14307518 -2.996901e-05)
(0.00036702829 0.14281188 1.452596e-05)
(0.00051496632 0.14234944 -1.8769797e-05)
(0.00034429045 0.14194003 -6.5361081e-05)
(-0.0005549473 0.14258845 -5.5233279e-05)
(0.00012952879 0.14252381 2.2106038e-05)
(0.00019901875 0.14234257 1.3124084e-06)
(0.00013467486 0.14213349 3.0989715e-06)
(-9.8352918e-05 0.14254111 0.00013140955)
(2.7287539e-05 0.14242509 2.5640178e-05)
(6.4511025e-05 0.14233705 5.3606402e-06)
(6.056585e-06 0.14228296 5.02895e-06)
(-4.4855071e-05 0.14228548 0.00014948096)
(-1.436086e-05 0.14234654 1.8470484e-05)
(1.6115703e-05 0.14233542 -4.367059e-06)
(1.2629668e-05 0.14231525 -1.197463e-05)
(1.3709537e-07 0.14232566 1.0725794e-05)
(1.6024093e-06 0.1423364 8.171956e-07)
(6.7339475e-06 0.14233734 2.5497794e-06)
(3.0153308e-06 0.14233277 -1.2756478e-06)
(4.9859355e-06 0.14233559 -1.0548256e-06)
(3.2393983e-06 0.14233557 2.5968232e-06)
(3.1897763e-06 0.14233259 5.239252e-06)
(1.3168443e-06 0.14232955 4.2008167e-06)
(4.2220272e-08 0.14233159 1.6905509e-06)
(1.1292071e-06 0.14233027 2.9961114e-06)
(3.4620356e-07 0.14232843 2.7079048e-06)
(-7.81412e-07 0.14232704 6.532844e-07)
(2.3124647e-06 0.14232813 -1.2274302e-06)
(4.3845292e-07 0.14232783 -1.7200243e-06)
(-2.6091911e-07 0.14232797 -2.4168528e-06)
(-7.2931701e-07 0.1423282 -3.6683333e-06)
(-3.6078008e-06 0.14232783 -8.9386044e-07)
(1.1677493e-06 0.14232851 -7.8219366e-06)
(3.752071e-07 0.14233043 -8.5485005e-06)
(-4.6438197e-07 0.14233087 -1.0281264e-05)
(-7.3157775e-06 0.14232663 -8.9499623e-06)
(5.7865808e-06 0.14233107 -1.7128818e-05)
(2.7286272e-06 0.14233838 -1.7785766e-05)
(1.6954488e-07 0.14234005 -2.2614196e-05)
(1.5394299e-05 0.14229939 -6.3276027e-05)
(2.5380674e-05 0.14233736 -3.179777e-05)
(1.112279e-05 0.14236065 -2.4375184e-05)
(3.0372636e-06 0.14236868 -3.2546278e-05)
(0.00014106766 0.1423432 -0.00024949628)
(6.5857466e-05 0.14237825 -5.0995976e-05)
(2.3831136e-05 0.14238509 -1.4049946e-05)
(5.7038413e-06 0.14238789 -1.0120638e-05)
(0.0019842084 0.1425373 -0.00023480956)
(5.2383896e-05 0.14242284 -2.551174e-05)
(1.4217943e-05 0.14240118 -1.5608704e-05)
(-4.4920227e-06 0.14238009 -1.3478893e-05)
(0.0011738273 0.14223603 5.9388024e-05)
(4.7130227e-05 0.14242513 -2.4675835e-05)
(-1.6965812e-07 0.1424526 -2.4834093e-05)
(-2.1587228e-05 0.14243223 -7.9319279e-06)
(0.00036512058 0.14252669 -0.00017457246)
(0.00016542916 0.14253074 -7.6085556e-05)
(-2.0746838e-05 0.14267804 -7.3376583e-05)
(-0.00014935816 0.14245748 -8.1421794e-06)
(0.00041184907 0.14209778 -0.00040292181)
(0.00092160135 0.14315226 -0.0003221991)
(-0.00014685792 0.14396013 -0.00028047762)
(-0.00086825918 0.142752 -0.00026059547)
(0.0012903457 0.1409287 -0.0015062634)
(0.0047941526 0.14827201 -0.00099917031)
(-0.00052957871 0.14964026 -0.00065410115)
(-0.0058017182 0.14613852 -0.00091396466)
(-0.09950009 -4.3538316e-06 -3.178608e-05)
(-0.099685238 2.3629537e-05 -1.662469e-05)
(-0.099643529 -1.2228198e-05 8.3428203e-07)
(-0.099660432 1.7004428e-05 5.2590124e-06)
(-0.099642877 7.8338187e-05 -7.7244004e-06)
(-0.099559751 2.2057796e-05 -7.7889885e-05)
(-0.099648367 -4.8278108e-06 4.2154348e-05)
(-0.099644185 7.2326509e-05 -1.129965e-05)
(-0.099606849 2.0913437e-05 -1.2665834e-05)
(-0.099620271 -1.0414344e-05 -2.5027518e-06)
(-0.099629776 1.5511034e-05 4.4337584e-07)
(-0.099615807 1.1995846e-05 -1.1007142e-05)
(-0.09959921 2.653214e-06 2.9933082e-06)
(-0.099585177 -1.1203177e-05 2.8963503e-05)
(-0.099564217 -0.00013486622 1.1867207e-05)
(-0.099632978 -0.00018435634 -1.4312531e-05)
(-0.099552037 -2.6309762e-05 -7.2922716e-05)
(-0.099279315 -0.00030465129 -8.7973762e-05)
(-0.09882971 -0.00082670676 -0.00018904528)
(-0.097647588 -0.0019597341 -0.00047187073)
(-0.094820679 -0.0049471008 -0.00075299249)
(-0.091023847 -0.010615408 -0.00011634028)
(-0.088160984 -0.017521604 -0.00019965536)
(-0.084647691 -0.024914379 0.00014593892)
(-0.084597702 -0.034384869 -0.0047428645)
(-0.099570995 -3.6830275e-06 2.1739739e-05)
(-0.099668807 -7.6529213e-06 2.3143794e-05)
(-0.099659137 -1.4203473e-05 5.2407894e-06)
(-0.099634065 -5.7476934e-06 3.5557265e-06)
(-0.099617777 2.2515957e-05 6.6844776e-06)
(-0.099627773 4.687494e-05 4.5074848e-06)
(-0.099616175 -4.0121791e-06 1.5281028e-05)
(-0.099644337 -8.2074345e-06 1.6061039e-05)
(-0.099625938 5.5014904e-06 -3.6407004e-06)
(-0.09962613 8.5918558e-06 -1.091092e-05)
(-0.099625256 1.3422382e-07 1.2893331e-05)
(-0.099624125 2.6655657e-06 -4.3644943e-07)
(-0.099614513 -9.8596045e-06 -2.197258e-06)
(-0.099607833 -2.3407906e-05 2.1634342e-05)
(-0.099677133 -3.9331205e-05 -2.4018785e-05)
(-0.099652903 -9.2026678e-05 -1.6276812e-05)
(-0.099670693 -0.00015394893 -7.691621e-06)
(-0.099709385 -0.00041847207 1.5237001e-05)
(-0.09977281 -0.0010770713 5.2055209e-05)
(-0.099877028 -0.0027150191 0.00010305023)
(-0.09977818 -0.006580701 9.8598558e-05)
(-0.098426661 -0.013300205 3.8294838e-05)
(-0.095358504 -0.021051545 -2.7229354e-05)
(-0.090929375 -0.028390455 6.1901798e-05)
(-0.085965383 -0.034802408 0.00049173256)
(-0.081806666 -0.040891487 0.0010006592)
(-0.086034674 -0.05176443 -0.0030999197)
(-0.099563011 0.00011405112 2.8779196e-05)
(-0.099738508 -0.00012656584 -0.00011448421)
(-0.099599328 -2.629768e-05 5.9726986e-05)
(-0.099663621 -7.2719704e-05 -2.3118454e-05)
(-0.099499046 -9.4633848e-06 -1.0921243e-05)
(-0.099696235 0.00018229742 0.00025531066)
(-0.099576586 -2.6345983e-05 -5.9613592e-05)
(-0.099652488 2.6632365e-05 1.4818432e-05)
(-0.099626554 2.8870683e-06 -5.1086507e-06)
(-0.099624145 -3.1927685e-06 -4.0011351e-06)
(-0.099621709 3.054207e-06 5.388802e-06)
(-0.09962819 -2.0828609e-06 1.4200661e-06)
(-0.099624468 -2.9245281e-06 -3.7024141e-06)
(-0.099632835 -2.0502205e-05 1.7499969e-05)
(-0.099671792 -3.2623527e-05 -3.134132e-05)
(-0.099749841 -0.00016373844 -2.2878175e-05)
(-0.099833341 4.6875686e-05 2.165485e-05)
(-0.10005345 -0.00027470094 0.00010529527)
(-0.1005761 -0.000696457 0.00032820288)
(-0.10220497 -0.0017169193 0.0008604072)
(-0.10594911 -0.0058945989 0.0012615639)
(-0.10766285 -0.015334374 0.00039097024)
(-0.10417669 -0.02529428 0.00016896272)
(-0.098399738 -0.033938525 -0.00014378754)
(-0.091959084 -0.040132287 -0.00013256078)
(-0.087159351 -0.044166243 0.00046729081)
(-0.086540723 -0.04862806 0.0029645466)
(-0.092409253 -0.061338983 0.011485789)
(-0.11024364 -0.044300929 -0.0024757944)
(-0.09660921 -0.048484796 -0.0010315342)
(-0.088330228 -0.047454995 -0.0010784788)
(-0.088839954 -0.043807104 0.0015441728)
(-0.10588815 -0.042741874 0.013521307)
(-0.14703549 -0.061328714 0.064141074)
(-0.081404107 -0.054499197 -0.0048949388)
(-0.075850423 -0.035544954 -0.0039095477)
(-0.091433984 -0.0096330954 0.0072696504)
(-0.13706075 0.02995249 0.050539378)
(-0.18659686 0.11666041 0.23893186)
(-0.042662803 -0.030534386 -0.012868555)
(-0.048572313 0.017682079 -0.0050751667)
(-0.068669458 0.07450905 0.017497493)
(-0.076829734 0.15567347 0.06971808)
(0.0046130638 0.042857445 -0.01612786)
(-0.010561771 0.09241771 -0.00076933022)
(-0.010999739 0.14049865 0.01875613)
(0.021727262 0.17581571 0.043952353)
(0.026166731 0.1117246 -0.0069407769)
(0.019059824 0.1341538 0.0030582571)
(0.028554744 0.1460812 0.010441121)
(0.042112859 0.13448081 -0.0068427487)
(0.028644594 0.13777777 -0.00076012839)
(0.027747502 0.13744363 0.0025912189)
(0.032376976 0.13221778 0.005147481)
(0.02554426 0.14473756 -0.0010056086)
(0.021885012 0.13738083 0.00048794278)
(0.021312189 0.12860528 0.0016009577)
(0.015526639 0.14906561 0.00032155658)
(0.01373205 0.13949737 -4.3312746e-05)
(0.011492661 0.13091553 -0.00016595131)
(0.0061208713 0.14745425 0.0010738933)
(0.0065648432 0.14131856 -9.4713374e-05)
(0.0042410263 0.13626793 -0.0013119053)
(0.0021494344 0.14456215 0.00062132021)
(0.0027148263 0.14206039 -6.1811496e-05)
(0.0017689816 0.1400114 -0.00048840292)
(0.00082300277 0.14325957 0.00025339493)
(0.0010937005 0.14230728 -2.1176094e-05)
(0.00063983553 0.14132629 -0.00030673873)
(0.00032040745 0.14274827 7.1783279e-05)
(0.00043678014 0.14236357 -2.0875727e-05)
(0.00018448207 0.14204118 -0.00022636363)
(0.00012619233 0.1424776 3.5566078e-05)
(0.00016862161 0.14235407 4.1354627e-06)
(-2.6077394e-05 0.14217569 -0.00020542589)
(6.5879178e-05 0.14245705 -9.383178e-06)
(5.4334979e-05 0.1423206 -9.7227815e-06)
(0.00026689602 0.14222013 0.0002802783)
(-5.0968481e-05 0.14226533 -7.8160965e-05)
(4.2442506e-06 0.14234195 -8.400777e-05)
(-2.721359e-05 0.14231824 -5.7576652e-05)
(1.4099413e-05 0.14236106 -3.0752788e-06)
(1.2082365e-05 0.14234163 4.7256095e-05)
(-1.213912e-05 0.14236821 8.9976537e-06)
(1.6058974e-05 0.14235044 6.1076167e-07)
(2.6882533e-06 0.14233267 2.0263636e-05)
(2.0380235e-06 0.14231947 1.6265943e-05)
(1.502133e-06 0.14232302 1.1614625e-05)
(-2.511188e-06 0.14231963 8.6315007e-06)
(-8.7827948e-06 0.14232058 -3.1182728e-06)
(-2.474272e-08 0.14232065 -1.9188706e-06)
(-1.5244357e-06 0.14232151 -1.8076167e-06)
(-3.6378685e-06 0.14232341 -5.0973761e-06)
(1.7174624e-06 0.14232025 -8.4742498e-06)
(-2.3641339e-07 0.14232297 -6.7879423e-06)
(-7.6516011e-06 0.14231922 -1.3400236e-05)
(6.1661341e-06 0.14231881 -2.166928e-05)
(1.0086344e-06 0.14232192 -1.8616952e-05)
(-2.2558464e-05 0.14230613 -3.4428742e-05)
(2.9699139e-05 0.14232686 -2.654018e-05)
(-3.9622496e-06 0.14236541 -4.7607994e-05)
(-6.1388276e-05 0.14236196 -0.00014312118)
(0.00020859959 0.14238949 3.4086009e-06)
(5.3270271e-05 0.14239736 4.6788502e-05)
(-5.1795882e-05 0.14244199 8.0941023e-06)
(2.4049317e-05 0.14242255 -3.1101928e-05)
(1.5616299e-05 0.14236898 -2.3195008e-05)
(0.00011333973 0.14225514 3.5808275e-05)
(-6.6842391e-06 0.14234584 1.9550107e-07)
(-9.7667226e-06 0.14241802 -5.8036405e-05)
(-6.1700322e-05 0.14248419 -6.6263555e-05)
(8.5391947e-05 0.14228704 -0.00015029979)
(2.5786079e-06 0.14242559 -0.00016925754)
(-0.00020363876 0.14222892 -0.00023514625)
(0.0007286588 0.14190968 -0.0007943241)
(-8.4489493e-05 0.14270843 -0.00093205096)
(-0.00063216374 0.14177246 -0.00076834339)
(0.0062939219 0.141595 -0.0067409684)
(-0.00062920943 0.14618167 -0.00580152)
(-0.0060571987 0.13694639 -0.0057856971)
(-0.099705871 0.00021339675 0.0001643555)
(-0.099839815 -0.00011097802 5.0096817e-05)
(-0.099894174 -4.4394466e-05 0.00013481877)
(-0.099489181 8.9547547e-06 7.4110876e-05)
(-0.099555665 -0.0001390907 4.9752222e-06)
(-0.099787999 0.00010274112 6.1790895e-05)
(-0.099714283 0.00019292773 9.1629575e-05)
(-0.099523119 1.8463655e-05 2.2524002e-05)
(-0.099564764 -9.9020185e-06 -6.634255e-06)
(-0.099619658 8.3645156e-06 -5.372499e-07)
(-0.099619394 9.9907964e-06 2.0203907e-06)
(-0.099618706 5.5054132e-06 1.5965713e-06)
(-0.099619914 4.1189852e-06 6.8664644e-07)
(-0.099623209 2.5401169e-06 -1.0452951e-06)
(-0.099623698 2.3929399e-06 -1.3905437e-06)
(-0.099623754 2.110983e-06 -1.737939e-06)
(-0.099623519 1.997781e-06 -1.6488075e-06)
(-0.099622651 1.4123364e-06 -1.1653865e-06)
(-0.099622455 1.1920484e-06 -1.0278048e-06)
(-0.09962188 6.9879496e-07 -7.526117e-07)
(-0.09962163 5.3800863e-07 -6.3955461e-07)
(-0.099620421 -2.2967293e-07 -1.5312851e-07)
(-0.09961998 -6.2304508e-07 1.6066911e-07)
(-0.099618363 -2.2193795e-06 1.9117753e-06)
(-0.099617826 -3.067288e-06 2.7607197e-06)
(-0.099616066 -5.9670202e-06 7.0123103e-06)
(-0.099615 -7.1686468e-06 8.9760746e-06)
(-0.099608813 -1.3866688e-05 1.5141877e-05)
(-0.099605494 -1.7931377e-05 1.7112482e-05)
(-0.099590364 -3.7982001e-05 2.0278083e-05)
(-0.099582617 -4.6552763e-05 2.1721331e-05)